----- GAMESS execution script 'rungms' -----
This job is running on host compute-0-9.local
under operating system Linux at Mon Dec 9 13:52:36 CST 2013
SGE has assigned the following compute nodes to this run:
compute-0-9
Available scratch disk space (Kbyte units) at beginning of the job is
Filesystem           1K-blocks      Used Available Use% Mounted on
/dev/sda5            940265216   4339768 888162660   1% /state/partition1
GAMESS temporary binary files will be written to /scratch/asirjoos/33139
GAMESS supplementary output files will be written to /home/asirjoos/codes/HF-exch/tests/TEST_03/answer
Copying input file H.inp to your run's scratch directory...
cp H.inp /scratch/asirjoos/33139/H.F05
unset echo
The generated host list is
compute-0-9:cpus=1:netext=.local
/share/apps/gamess/may_2013/ddikick.x /share/apps/gamess/may_2013/gamess.curr.x H -ddi 1 1 compute-0-9:cpus=1:netext=.local -scr /scratch/asirjoos/33139

 Distributed Data Interface kickoff program.
 Initiating 1 compute processes on 1 nodes to run the following command:
 /share/apps/gamess/may_2013/gamess.curr.x H 

          ******************************************************
          *         GAMESS VERSION =  1 MAY 2013 (R1)          *
          *             FROM IOWA STATE UNIVERSITY             *
          * M.W.SCHMIDT, K.K.BALDRIDGE, J.A.BOATZ, S.T.ELBERT, *
          *   M.S.GORDON, J.H.JENSEN, S.KOSEKI, N.MATSUNAGA,   *
          *          K.A.NGUYEN, S.J.SU, T.L.WINDUS,           *
          *       TOGETHER WITH M.DUPUIS, J.A.MONTGOMERY       *
          *         J.COMPUT.CHEM.  14, 1347-1363(1993)        *
          **************** 64 BIT INTEL VERSION ****************

  SINCE 1993, STUDENTS AND POSTDOCS WORKING AT IOWA STATE UNIVERSITY
  AND ALSO IN THEIR VARIOUS JOBS AFTER LEAVING ISU HAVE MADE IMPORTANT
  CONTRIBUTIONS TO THE CODE:
     IVANA ADAMOVIC, CHRISTINE AIKENS, YURI ALEXEEV, POOJA ARORA,
     ANDREY ASADCHEV, ROB BELL, PRADIPTA BANDYOPADHYAY, JONATHAN BENTZ,
     BRETT BODE, GALINA CHABAN, WEI CHEN, CHEOL HO CHOI, PAUL DAY,
     ALBERT DEFUSCO, TIM DUDLEY, DMITRI FEDOROV, GRAHAM FLETCHER,
     MARK FREITAG, KURT GLAESEMANN, DAN KEMP, GRANT MERRILL,
     NORIYUKI MINEZAWA, JONATHAN MULLIN, TAKESHI NAGATA,
     SEAN NEDD, HEATHER NETZLOFF, BOSILJKA NJEGIC, RYAN OLSON, MIKE PAK,
     JIM SHOEMAKER, LYUDMILA SLIPCHENKO, SAROM SOK, JIE SONG,
     TETSUYA TAKETSUGU, SIMON WEBB, SOOHAENG YOO, FEDERICO ZAHARIEV

  ADDITIONAL CODE HAS BEEN PROVIDED BY COLLABORATORS IN OTHER GROUPS:
     IOWA STATE UNIVERSITY:
          JOE IVANIC, LAIMUTIS BYTAUTAS, KLAUS RUEDENBERG
     UNIVERSITY OF TOKYO: KIMIHIKO HIRAO, TAKAHITO NAKAJIMA,
          TAKAO TSUNEDA, MUNEAKI KAMIYA, SUSUMU YANAGISAWA,
          KIYOSHI YAGI, MAHITO CHIBA, SEIKEN TOKURA, NAOAKI KAWAKAMI
     UNIVERSITY OF AARHUS: FRANK JENSEN
     UNIVERSITY OF IOWA: VISVALDAS KAIRYS, HUI LI
     NATIONAL INST. OF STANDARDS AND TECHNOLOGY: WALT STEVENS, DAVID GARMER
     UNIVERSITY OF PISA: BENEDETTA MENNUCCI, JACOPO TOMASI
     UNIVERSITY OF MEMPHIS: HENRY KURTZ, PRAKASHAN KORAMBATH
     UNIVERSITY OF ALBERTA: TOBY ZENG, MARIUSZ KLOBUKOWSKI
     UNIVERSITY OF NEW ENGLAND: MARK SPACKMAN
     MIE UNIVERSITY: HIROAKI UMEDA
     MICHIGAN STATE UNIVERSITY:
          KAROL KOWALSKI, MARTA WLOCH, JEFFREY GOUR, JESSE LUTZ,
          WEI LI, PIOTR PIECUCH
     UNIVERSITY OF SILESIA: MONIKA MUSIAL, STANISLAW KUCHARSKI
     FACULTES UNIVERSITAIRES NOTRE-DAME DE LA PAIX:
          OLIVIER QUINET, BENOIT CHAMPAGNE
     UNIVERSITY OF CALIFORNIA - SANTA BARBARA: BERNARD KIRTMAN
     INSTITUTE FOR MOLECULAR SCIENCE:
          KAZUYA ISHIMURA, MICHIO KATOUDA, AND SHIGERU NAGASE
     UNIVERSITY OF NOTRE DAME: DAN CHIPMAN
     KYUSHU UNIVERSITY:
          HARUYUKI NAKANO,
          FENG LONG GU, JACEK KORCHOWIEC, MARCIN MAKOWSKI, AND YURIKO AOKI,
          HIROTOSHI MORI AND EISAKU MIYOSHI
     PENNSYLVANIA STATE UNIVERSITY:
          TZVETELIN IORDANOV, CHET SWALINA, JONATHAN SKONE,
          SHARON HAMMES-SCHIFFER
     WASEDA UNIVERSITY:
          MASATO KOBAYASHI, TOMOKO AKAMA, TSUGUKI TOUMA,
          TAKESHI YOSHIKAWA, YASUHIRO IKABATA, HIROMI NAKAI
     NANJING UNIVERSITY: SHUHUA LI
     UNIVERSITY OF NEBRASKA:
          PEIFENG SU, DEJUN SI, NANDUN THELLAMUREGE, YALI WANG, HUI LI
     UNIVERSITY OF ZURICH:
          ROBERTO PEVERATI, KIM BALDRIDGE
     N. COPERNICUS UNIVERSITY AND JACKSON STATE UNIVERSITY:
          MARIA BARYSZ

 EXECUTION OF GAMESS BEGUN Mon Dec  9 13:52:37 2013

            ECHO OF THE FIRST FEW INPUT CARDS -
 INPUT CARD>                                                                                
 INPUT CARD> $CONTRL SCFTYP=UHF COORD=unique units=angstrom                                 
 INPUT CARD>         MULT=2 RUNTYP=energy exetyp=debug icharg=0                             
 INPUT CARD>         mplevl=0 ispher=1 maxit=200 $end                                       
 INPUT CARD> $scf    conv=1.0d-05 soscf=.t. $end                                            
 INPUT CARD> $SYSTEM TIMLIM=50000 mwords=30 $END                                            
 INPUT CARD> $GUESS  GUESS=HUCKEL $END                                                      
 INPUT CARD> $DATA                                                                          
 INPUT CARD>                                                                                
 INPUT CARD> C1                                                                             
 INPUT CARD> H    1.0     0.000000     0.000000     0.000000                                
 INPUT CARD> S   3                                                                          
 INPUT CARD>  1     33.8650000              0.0254938                                       
 INPUT CARD>  2      5.0947900              0.1903730                                       
 INPUT CARD>  3      1.1587900              0.8521610                                       
 INPUT CARD> S   1                                                                          
 INPUT CARD>  1      0.3258400              1.0000000                                       
 INPUT CARD> S   1                                                                          
 INPUT CARD>  1      0.1027410              1.0000000                                       
 INPUT CARD>                                                                                
 INPUT CARD> $END                                                                           
 INPUT CARD>                                                                                
   30000000 WORDS OF MEMORY AVAILABLE


     RUN TITLE
     ---------
                                                                                 

 THE POINT GROUP OF THE MOLECULE IS C1      
 THE ORDER OF THE PRINCIPAL AXIS IS     0

 ATOM      ATOMIC                      COORDINATES (BOHR)
           CHARGE         X                   Y                   Z
 H           1.0     0.0000000000        0.0000000000        0.0000000000

          INTERNUCLEAR DISTANCES (ANGS.)
          ------------------------------

                1 H     

   1 H       0.0000000  

  * ... LESS THAN  3.000


     ATOMIC BASIS SET
     ----------------
 THE CONTRACTED PRIMITIVE FUNCTIONS HAVE BEEN UNNORMALIZED
 THE CONTRACTED BASIS FUNCTIONS ARE NOW NORMALIZED TO UNITY

  SHELL TYPE  PRIMITIVE        EXPONENT          CONTRACTION COEFFICIENT(S)

 H         

      1   S       1            33.8650000    0.025493814541
      1   S       2             5.0947900    0.190373108582
      1   S       3             1.1587900    0.852161486043

      2   S       4             0.3258400    1.000000000000

      3   S       5             0.1027410    1.000000000000

 TOTAL NUMBER OF BASIS SET SHELLS             =    3
 NUMBER OF CARTESIAN GAUSSIAN BASIS FUNCTIONS =    3
 NOTE: THIS RUN WILL RESTRICT THE MO VARIATION SPACE TO SPHERICAL HARMONICS.
 THE NUMBER OF ORBITALS KEPT IN THE VARIATIONAL SPACE WILL BE PRINTED LATER.
 NUMBER OF ELECTRONS                          =    1
 CHARGE OF MOLECULE                           =    0
 SPIN MULTIPLICITY                            =    2
 NUMBER OF OCCUPIED ORBITALS (ALPHA)          =    1
 NUMBER OF OCCUPIED ORBITALS (BETA )          =    0
 TOTAL NUMBER OF ATOMS                        =    1
 THE NUCLEAR REPULSION ENERGY IS        0.0000000000

 THIS MOLECULE IS RECOGNIZED AS BEING LINEAR,
 ORBITAL LZ DEGENERACY TOLERANCE ETOLLZ= 1.00E-06

     $CONTRL OPTIONS
     ---------------
 SCFTYP=UHF          RUNTYP=ENERGY       EXETYP=DEBUG   
 MPLEVL=       0     CITYP =NONE         CCTYP =NONE         VBTYP =NONE    
 DFTTYP=NONE         TDDFT =NONE    
 MULT  =       2     ICHARG=       0     NZVAR =       0     COORD =UNIQUE  
 PP    =NONE         RELWFN=NONE         LOCAL =NONE         NUMGRD=       F
 ISPHER=       1     NOSYM =       0     MAXIT =     200     UNITS =ANGSTROM
 PLTORB=       F     MOLPLT=       F     AIMPAC=       F     FRIEND=        
 NPRINT=       7     IREST =       0     GEOM  =INPUT   
 NORMF =       0     NORMP =       0     ITOL  =      20     ICUT  =       9
 INTTYP=BEST         GRDTYP=BEST         QMTTOL= 1.0E-06

     $SYSTEM OPTIONS
     ---------------
  REPLICATED MEMORY=    30000000 WORDS (ON EVERY NODE).
 DISTRIBUTED MEMDDI=           0 MILLION WORDS IN AGGREGATE,
 MEMDDI DISTRIBUTED OVER   1 PROCESSORS IS           0 WORDS/PROCESSOR.
 TOTAL MEMORY REQUESTED ON EACH PROCESSOR=    30000000 WORDS.
 TIMLIM=       50000.00 MINUTES, OR      34.7 DAYS.
 PARALL= F  BALTYP=  DLB     KDIAG=    0  COREFL= F
 MXSEQ2=     300 MXSEQ3=     150

          ----------------
          PROPERTIES INPUT
          ----------------

     MOMENTS            FIELD           POTENTIAL          DENSITY
 IEMOM =       1   IEFLD =       0   IEPOT =       0   IEDEN =       0
 WHERE =COMASS     WHERE =NUCLEI     WHERE =NUCLEI     WHERE =NUCLEI  
 OUTPUT=BOTH       OUTPUT=BOTH       OUTPUT=BOTH       OUTPUT=BOTH    
 IEMINT=       0   IEFINT=       0                     IEDINT=       0
                                                       MORB  =       0
          EXTRAPOLATION IN EFFECT
 ORBITAL PRINTING OPTION: NPREO=     1     3     2     1

     -------------------------------
     INTEGRAL TRANSFORMATION OPTIONS
     -------------------------------
     NWORD  =            0
     CUTOFF = 1.0E-09     MPTRAN =       0
     DIRTRF =       F     AOINTS =DUP     

          ----------------------
          INTEGRAL INPUT OPTIONS
          ----------------------
 NOPK  =       1 NORDER=       0 SCHWRZ=       F

     ------------------------------------------
     THE POINT GROUP IS C1 , NAXIS= 0, ORDER= 1
     ------------------------------------------

 -- VARIATIONAL SPACE WILL BE RESTRICTED TO PURE SPHERICAL HARMONICS ONLY --
 AFTER EXCLUDING CONTAMINANT COMBINATIONS FROM THE CARTESIAN GAUSSIAN BASIS
 SET, THE NUMBER OF SPHERICAL HARMONICS KEPT IN THE VARIATION SPACE IS    3

     DIMENSIONS OF THE SYMMETRY SUBSPACES ARE
 A   =    3

 ..... DONE SETTING UP THE RUN .....
 STEP CPU TIME =     0.01 TOTAL CPU TIME =        0.0 (    0.0 MIN)
 TOTAL WALL CLOCK TIME=        0.0 SECONDS, CPU UTILIZATION IS  50.00%

          ********************
          1 ELECTRON INTEGRALS
          ********************
 OVERLAP MATRIX

                      1          2          3

    1  H  1  S    1.000000
    2  H  1  S    0.706377   1.000000
    3  H  1  S    0.373664   0.788963   1.000000
 BARE NUCLEUS HAMILTONIAN INTEGRALS (H=T+V)

                      1          2          3

    1  H  1  S    0.193252
    2  H  1  S   -0.511607  -0.422143
    3  H  1  S   -0.408648  -0.397930  -0.357384
 KINETIC ENERGY INTEGRALS

                      1          2          3

    1  H  1  S    2.304348
    2  H  1  S    0.549119   0.488760
    3  H  1  S    0.106346   0.184881   0.154112
 Z-ANGULAR MOMENTUM INTEGRALS

                      1          2          3

    1  H  1  S    0.000000
    2  H  1  S    0.000000   0.000000
    3  H  1  S    0.000000   0.000000   0.000000
 ...... END OF ONE-ELECTRON INTEGRALS ......
 STEP CPU TIME =     0.00 TOTAL CPU TIME =        0.0 (    0.0 MIN)
 TOTAL WALL CLOCK TIME=        0.0 SECONDS, CPU UTILIZATION IS  50.00%

          -------------
          GUESS OPTIONS
          -------------
          GUESS =HUCKEL            NORB  =       0          NORDER=       0
          MIX   =       F          PRTMO =       F          PUNMO =       F
          TOLZ  = 1.0E-08          TOLE  = 1.0E-05
          SYMDEN=       F          PURIFY=       F

 INITIAL GUESS ORBITALS GENERATED BY HUCKEL   ROUTINE.
 HUCKEL GUESS REQUIRES       739 WORDS.
 ATOM    1  HAS LLIM=    1  IULIM=    1

 EXTENDED HUCKEL MATRIX

             1

    1   -0.5000000
 EXTENDED HUCKEL ORBITALS (IN MINI BASIS) ARE

                      1

                 -0.500000

    1             1.000000
 ENTERED COPROJ
 THE -B- MBS ORBITALS ARE

             1

    1    1.0000000
 THE -SBA- MATRIX IS

             1           2           3

    1    0.8420429   0.9720472   0.7527361
 PROJECTING WITH NDOC,NACT,NPROJ=    0    1    1
 ON PASS   2 MINMO,MAXMO,NMO,NREST=    1    1    1    3
 THE -A- ORBITALS ARE

             1           2           3

    1    1.1828051   0.9528615   0.3492213
    2   -2.3126579  -0.0648004   0.4274798
    3    1.5521419  -0.8226764   0.3708125
 OVERLAP BETWEEN THE -B- AND -A- ORBITALS IS

             1           2           3

    1   -0.0836867   0.1201031   0.9887138
 D-DAGGER*D IS

             1           2           3

    1    0.0070035
    2   -0.0100510   0.0144248
    3   -0.0827422   0.1187476   0.9775550
 ORTHOGONALIZED CORR. ORB. TRANSFORMATION

                      1          2          3

                  0.998983   0.000000   0.000000

    1            -0.083729   0.996489   0.000000
    2             0.120164   0.010097   0.992703
    3             0.989217   0.083118  -0.120588
 EIGENVALUES ARE DIAGONAL OF 1E- H IN MO BASIS

 SYMMETRIES FOR INITIAL GUESS ORBITALS FOLLOW.  ALPHA SET(S).
     1 ORBITALS ARE OCCUPIED (    0 CORE ORBITALS).
     1=A        2=A        3=A   

                              ----------------------
                              INITIAL GUESS ORBITALS
                              ----------------------

                              ASSIGNED OCCUPANCIES

                  1.000000   0.000000   0.000000

                      1          2          3
                   -0.4704     1.3320     0.5510
                     A          A          A   
    1  H  1  S    0.360920  -1.217299   0.903796
    2  H  1  S    0.608721   2.269660  -0.115876
    3  H  1  S    0.137998  -1.569207  -0.861389
 ...... END OF INITIAL ORBITAL SELECTION ......
 STEP CPU TIME =     0.00 TOTAL CPU TIME =        0.0 (    0.0 MIN)
 TOTAL WALL CLOCK TIME=        0.0 SECONDS, CPU UTILIZATION IS  50.00%

                    ----------------------
                    AO INTEGRAL TECHNOLOGY
                    ----------------------
     S,P,L SHELL ROTATED AXIS INTEGRALS, REPROGRAMMED BY
        KAZUYA ISHIMURA (IMS) AND JOSE SIERRA (SYNSTAR).
     S,P,D,L SHELL ROTATED AXIS INTEGRALS PROGRAMMED BY
        KAZUYA ISHIMURA (INSTITUTE FOR MOLECULAR SCIENCE).
     S,P,D,F,G SHELL TO TOTAL QUARTET ANGULAR MOMENTUM SUM 5,
        ERIC PROGRAM BY GRAHAM FLETCHER (ELORET AND NASA ADVANCED
        SUPERCOMPUTING DIVISION, AMES RESEARCH CENTER).
     S,P,D,F,G,L SHELL GENERAL RYS QUADRATURE PROGRAMMED BY
        MICHEL DUPUIS (PACIFIC NORTHWEST NATIONAL LABORATORY).

          --------------------
          2 ELECTRON INTEGRALS
          --------------------

 THE -PK- OPTION IS OFF, THE INTEGRALS ARE NOT IN SUPERMATRIX FORM.
 STORING   15000 INTEGRALS/RECORD ON DISK, USING 12 BYTES/INTEGRAL.
 TWO ELECTRON INTEGRAL EVALUATION REQUIRES   89362 WORDS OF MEMORY.
 II,JST,KST,LST =  1  1  1  1 NREC =         1 INTLOC =    1
 II,JST,KST,LST =  2  1  1  1 NREC =         1 INTLOC =    2
 II,JST,KST,LST =  3  1  1  1 NREC =         1 INTLOC =    7
 TOTAL NUMBER OF NONZERO TWO-ELECTRON INTEGRALS =                  21
          1 INTEGRAL RECORDS WERE STORED ON DISK FILE  8.
  ...... END OF TWO-ELECTRON INTEGRALS .....
 STEP CPU TIME =     0.01 TOTAL CPU TIME =        0.0 (    0.0 MIN)
 TOTAL WALL CLOCK TIME=        0.1 SECONDS, CPU UTILIZATION IS  33.33%

          ---------------------------
                  UHF SCF CALCULATION
          ---------------------------

     NUCLEAR ENERGY =         0.0000000000
     MAXIT =200     NPUNCH=  2     MULT=  2
     EXTRAP=T  DAMP=F  SHIFT=F  RSTRCT=F  DIIS=F  SOSCF=F
     DENSITY MATRIX CONV=  1.00E-05
     MEMORY REQUIRED FOR UHF/ROHF ITERS=     30138 WORDS.

 ITER EX      TOTAL ENERGY        E CHANGE  DENSITY CHANGE    DIIS ERROR
 *** START OF DEBUG OUTPUT FOR ITERATION                     1
 ALPHA SKELETON FOCK MATRIX

                      1          2          3

    1  H  1  S    0.171007
    2  H  1  S   -0.072972   0.034543
    3  H  1  S   -0.125366   0.038480   0.158143
 BETA SKELETON FOCK MATRIX

                      1          2          3

    1  H  1  S    0.989708
    2  H  1  S    0.625984   0.696890
    3  H  1  S    0.318839   0.479124   0.459420
 ALPHA SYMMETRIZED FOCK MATRIX

                      1          2          3

    1  H  1  S    0.171007
    2  H  1  S   -0.072972   0.034543
    3  H  1  S   -0.125366   0.038480   0.158143
 BETA SYMMETRIZED FOCK MATRIX

                      1          2          3

    1  H  1  S    0.989708
    2  H  1  S    0.625984   0.696890
    3  H  1  S    0.318839   0.479124   0.459420
 ALPHA TOTAL FOCK MATRIX

                      1          2          3

    1  H  1  S    0.364259
    2  H  1  S   -0.584579  -0.387600
    3  H  1  S   -0.534014  -0.359450  -0.199241
 BETA TOTAL FOCK MATRIX

                      1          2          3

    1  H  1  S    1.182960
    2  H  1  S    0.114377   0.274747
    3  H  1  S   -0.089809   0.081193   0.102036
 NEW ALPHA ORBITALS

                      1          2          3

                   -0.4895     0.3390     2.5097

    1  H  1  S    0.273315  -0.082783  -1.532114
    2  H  1  S    0.567746  -1.268941   1.898099
    3  H  1  S    0.278377   1.579549  -0.806830
 NEW ALPHA DENSITY MATRIX

                      1          2          3

    1  H  1  S    0.074701
    2  H  1  S    0.155173   0.322335
    3  H  1  S    0.076085   0.158048   0.077494
 NEW BETA DENSITY MATRIX

                      1          2          3

    1  H  1  S    0.000000
    2  H  1  S    0.000000   0.000000
    3  H  1  S    0.000000   0.000000   0.000000
 *** END OF DEBUG OUTPUT FOR ITERATION                     1
   1  0       -0.4704135781    -0.4704135781   0.074045416   0.000000000
 *** START OF DEBUG OUTPUT FOR ITERATION                     2
 ALPHA SKELETON FOCK MATRIX

                      1          2          3

    1  H  1  S    0.219483
    2  H  1  S   -0.045130   0.019690
    3  H  1  S   -0.123450   0.004152   0.112737
 BETA SKELETON FOCK MATRIX

                      1          2          3

    1  H  1  S    0.897438
    2  H  1  S    0.575897   0.657853
    3  H  1  S    0.294622   0.457409   0.446210
 ALPHA SYMMETRIZED FOCK MATRIX

                      1          2          3

    1  H  1  S    0.219483
    2  H  1  S   -0.045130   0.019690
    3  H  1  S   -0.123450   0.004152   0.112737
 BETA SYMMETRIZED FOCK MATRIX

                      1          2          3

    1  H  1  S    0.897438
    2  H  1  S    0.575897   0.657853
    3  H  1  S    0.294622   0.457409   0.446210
 ALPHA TOTAL FOCK MATRIX

                      1          2          3

    1  H  1  S    0.412735
    2  H  1  S   -0.556736  -0.402453
    3  H  1  S   -0.532098  -0.393778  -0.244647
 BETA TOTAL FOCK MATRIX

                      1          2          3

    1  H  1  S    1.090690
    2  H  1  S    0.064290   0.235709
    3  H  1  S   -0.114026   0.059479   0.088826
 NEW ALPHA ORBITALS

                      1          2          3

                   -0.4984     0.3469     2.4889

    1  H  1  S    0.249073  -0.089047  -1.535891
    2  H  1  S    0.533213  -1.301628   1.885941
    3  H  1  S    0.340625   1.568279  -0.804934
 NEW ALPHA DENSITY MATRIX

                      1          2          3

    1  H  1  S    0.062037
    2  H  1  S    0.132809   0.284316
    3  H  1  S    0.084840   0.181625   0.116025
 NEW BETA DENSITY MATRIX

                      1          2          3

    1  H  1  S    0.000000
    2  H  1  S    0.000000   0.000000
    3  H  1  S    0.000000   0.000000   0.000000
 *** END OF DEBUG OUTPUT FOR ITERATION                     2
   2  1       -0.4960738531    -0.0256602750   0.038531169   0.000000000
 *** START OF DEBUG OUTPUT FOR ITERATION                     3
 ALPHA SKELETON FOCK MATRIX

                      1          2          3

    1  H  1  S    0.235054
    2  H  1  S   -0.032812   0.018876
    3  H  1  S   -0.120514  -0.005556   0.096820
 BETA SKELETON FOCK MATRIX

                      1          2          3

    1  H  1  S    0.863574
    2  H  1  S    0.556898   0.642085
    3  H  1  S    0.285345   0.448393   0.440484
 ALPHA SYMMETRIZED FOCK MATRIX

                      1          2          3

    1  H  1  S    0.235054
    2  H  1  S   -0.032812   0.018876
    3  H  1  S   -0.120514  -0.005556   0.096820
 BETA SYMMETRIZED FOCK MATRIX

                      1          2          3

    1  H  1  S    0.863574
    2  H  1  S    0.556898   0.642085
    3  H  1  S    0.285345   0.448393   0.440484
 ALPHA TOTAL FOCK MATRIX

                      1          2          3

    1  H  1  S    0.428306
    2  H  1  S   -0.544418  -0.403267
    3  H  1  S   -0.529162  -0.403486  -0.260565
 BETA TOTAL FOCK MATRIX

                      1          2          3

    1  H  1  S    1.056826
    2  H  1  S    0.045291   0.219942
    3  H  1  S   -0.123303   0.050463   0.083099
 NEW ALPHA ORBITALS

                      1          2          3

                   -0.4996     0.3485     2.4778

    1  H  1  S    0.241774  -0.092727  -1.536839
    2  H  1  S    0.516046  -1.312319   1.883306
    3  H  1  S    0.366500   1.562208  -0.805373
 NEW ALPHA DENSITY MATRIX

                      1          2          3

    1  H  1  S    0.058455
    2  H  1  S    0.124766   0.266303
    3  H  1  S    0.088610   0.189131   0.134322
 NEW BETA DENSITY MATRIX

                      1          2          3

    1  H  1  S    0.000000
    2  H  1  S    0.000000   0.000000
    3  H  1  S    0.000000   0.000000   0.000000
 *** END OF DEBUG OUTPUT FOR ITERATION                     3
   3  2       -0.4992789460    -0.0032050929   0.018297232   0.000000000
 *** START OF DEBUG OUTPUT FOR ITERATION                     4
 ALPHA SKELETON FOCK MATRIX

                      1          2          3

    1  H  1  S    0.240350
    2  H  1  S   -0.027975   0.019317
    3  H  1  S   -0.119164  -0.008745   0.090924
 BETA SKELETON FOCK MATRIX

                      1          2          3

    1  H  1  S    0.850824
    2  H  1  S    0.549626   0.635866
    3  H  1  S    0.281777   0.444790   0.438150
 ALPHA SYMMETRIZED FOCK MATRIX

                      1          2          3

    1  H  1  S    0.240350
    2  H  1  S   -0.027975   0.019317
    3  H  1  S   -0.119164  -0.008745   0.090924
 BETA SYMMETRIZED FOCK MATRIX

                      1          2          3

    1  H  1  S    0.850824
    2  H  1  S    0.549626   0.635866
    3  H  1  S    0.281777   0.444790   0.438150
 ALPHA TOTAL FOCK MATRIX

                      1          2          3

    1  H  1  S    0.433602
    2  H  1  S   -0.539582  -0.402826
    3  H  1  S   -0.527813  -0.406675  -0.266461
 BETA TOTAL FOCK MATRIX

                      1          2          3

    1  H  1  S    1.044076
    2  H  1  S    0.038020   0.213723
    3  H  1  S   -0.126871   0.046860   0.080766
 NEW ALPHA ORBITALS

                      1          2          3

                   -0.4998     0.3488     2.4731

    1  H  1  S    0.239376  -0.094383   1.537114
    2  H  1  S    0.508657  -1.316123  -1.882661
    3  H  1  S    0.376878   1.559565   0.805706
 NEW ALPHA DENSITY MATRIX

                      1          2          3

    1  H  1  S    0.057301
    2  H  1  S    0.121760   0.258732
    3  H  1  S    0.090216   0.191702   0.142037
 NEW BETA DENSITY MATRIX

                      1          2          3

    1  H  1  S    0.000000
    2  H  1  S    0.000000   0.000000
    3  H  1  S    0.000000   0.000000   0.000000
 *** END OF DEBUG OUTPUT FOR ITERATION                     4
   4  3       -0.4997316217    -0.0004526757   0.007714869   0.000000000
 *** START OF DEBUG OUTPUT FOR ITERATION                     5
 ALPHA SKELETON FOCK MATRIX

                      1          2          3

    1  H  1  S    0.242251
    2  H  1  S   -0.026112   0.019613
    3  H  1  S   -0.118624  -0.009885   0.088686
 BETA SKELETON FOCK MATRIX

                      1          2          3

    1  H  1  S    0.845966
    2  H  1  S    0.546834   0.633442
    3  H  1  S    0.280403   0.443378   0.437226
 ALPHA SYMMETRIZED FOCK MATRIX

                      1          2          3

    1  H  1  S    0.242251
    2  H  1  S   -0.026112   0.019613
    3  H  1  S   -0.118624  -0.009885   0.088686
 BETA SYMMETRIZED FOCK MATRIX

                      1          2          3

    1  H  1  S    0.845966
    2  H  1  S    0.546834   0.633442
    3  H  1  S    0.280403   0.443378   0.437226
 ALPHA TOTAL FOCK MATRIX

                      1          2          3

    1  H  1  S    0.435503
    2  H  1  S   -0.537719  -0.402531
    3  H  1  S   -0.527272  -0.407815  -0.268698
 BETA TOTAL FOCK MATRIX

                      1          2          3

    1  H  1  S    1.039218
    2  H  1  S    0.035227   0.211299
    3  H  1  S   -0.128245   0.045447   0.079842
 NEW ALPHA ORBITALS

                      1          2          3

                   -0.4998     0.3489     2.4700

    1  H  1  S    0.238036  -0.095505  -1.537253
    2  H  1  S    0.503747  -1.318398   1.882389
    3  H  1  S    0.383526   1.557812  -0.805961
 NEW ALPHA DENSITY MATRIX

                      1          2          3

    1  H  1  S    0.056661
    2  H  1  S    0.119910   0.253761
    3  H  1  S    0.091293   0.193200   0.147092
 NEW BETA DENSITY MATRIX

                      1          2          3

    1  H  1  S    0.000000
    2  H  1  S    0.000000   0.000000
    3  H  1  S    0.000000   0.000000   0.000000
 *** END OF DEBUG OUTPUT FOR ITERATION                     5
   5  0       -0.4997981838    -0.0000665621   0.005055104   0.000000000
 *** START OF DEBUG OUTPUT FOR ITERATION                     6
 ALPHA SKELETON FOCK MATRIX

                      1          2          3

    1  H  1  S    0.243387
    2  H  1  S   -0.024952   0.019838
    3  H  1  S   -0.118285  -0.010570   0.087296
 BETA SKELETON FOCK MATRIX

                      1          2          3

    1  H  1  S    0.842952
    2  H  1  S    0.545093   0.631919
    3  H  1  S    0.279546   0.442487   0.436641
 ALPHA SYMMETRIZED FOCK MATRIX

                      1          2          3

    1  H  1  S    0.243387
    2  H  1  S   -0.024952   0.019838
    3  H  1  S   -0.118285  -0.010570   0.087296
 BETA SYMMETRIZED FOCK MATRIX

                      1          2          3

    1  H  1  S    0.842952
    2  H  1  S    0.545093   0.631919
    3  H  1  S    0.279546   0.442487   0.436641
 ALPHA TOTAL FOCK MATRIX

                      1          2          3

    1  H  1  S    0.436639
    2  H  1  S   -0.536559  -0.402305
    3  H  1  S   -0.526933  -0.408500  -0.270088
 BETA TOTAL FOCK MATRIX

                      1          2          3

    1  H  1  S    1.036204
    2  H  1  S    0.033486   0.209775
    3  H  1  S   -0.129102   0.044556   0.079257
 NEW ALPHA ORBITALS

                      1          2          3

                   -0.4998     0.3489     2.4700

    1  H  1  S    0.238037  -0.095510  -1.537252
    2  H  1  S    0.503723  -1.318405   1.882391
    3  H  1  S    0.383553   1.557805  -0.805962
 NEW ALPHA DENSITY MATRIX

                      1          2          3

    1  H  1  S    0.056662
    2  H  1  S    0.119905   0.253737
    3  H  1  S    0.091300   0.193204   0.147113
 NEW BETA DENSITY MATRIX

                      1          2          3

    1  H  1  S    0.000000
    2  H  1  S    0.000000   0.000000
    3  H  1  S    0.000000   0.000000   0.000000
 *** END OF DEBUG OUTPUT FOR ITERATION                     6
   6  1       -0.4998098149    -0.0000116311   0.000024383   0.000000000
 *** START OF DEBUG OUTPUT FOR ITERATION                     7
 ALPHA SKELETON FOCK MATRIX

                      1          2          3

    1  H  1  S    0.243389
    2  H  1  S   -0.024949   0.019839
    3  H  1  S   -0.118284  -0.010572   0.087292
 BETA SKELETON FOCK MATRIX

                      1          2          3

    1  H  1  S    0.842944
    2  H  1  S    0.545087   0.631914
    3  H  1  S    0.279543   0.442484   0.436639
 ALPHA SYMMETRIZED FOCK MATRIX

                      1          2          3

    1  H  1  S    0.243389
    2  H  1  S   -0.024949   0.019839
    3  H  1  S   -0.118284  -0.010572   0.087292
 BETA SYMMETRIZED FOCK MATRIX

                      1          2          3

    1  H  1  S    0.842944
    2  H  1  S    0.545087   0.631914
    3  H  1  S    0.279543   0.442484   0.436639
 ALPHA TOTAL FOCK MATRIX

                      1          2          3

    1  H  1  S    0.436641
    2  H  1  S   -0.536556  -0.402304
    3  H  1  S   -0.526932  -0.408502  -0.270092
 BETA TOTAL FOCK MATRIX

                      1          2          3

    1  H  1  S    1.036196
    2  H  1  S    0.033481   0.209771
    3  H  1  S   -0.129105   0.044553   0.079255
 NEW ALPHA ORBITALS

                      1          2          3

                   -0.4998     0.3489     2.4700

    1  H  1  S    0.238036  -0.095512  -1.537252
    2  H  1  S    0.503715  -1.318408   1.882391
    3  H  1  S    0.383562   1.557802  -0.805962
 NEW ALPHA DENSITY MATRIX

                      1          2          3

    1  H  1  S    0.056661
    2  H  1  S    0.119903   0.253729
    3  H  1  S    0.091302   0.193206   0.147120
 NEW BETA DENSITY MATRIX

                      1          2          3

    1  H  1  S    0.000000
    2  H  1  S    0.000000   0.000000
    3  H  1  S    0.000000   0.000000   0.000000
 *** END OF DEBUG OUTPUT FOR ITERATION                     7
   7  2       -0.4998098152    -0.0000000003   0.000007868   0.000000000
 *** START OF DEBUG OUTPUT FOR ITERATION                     8
 ALPHA SKELETON FOCK MATRIX

                      1          2          3

    1  H  1  S    0.243390
    2  H  1  S   -0.024948   0.019840
    3  H  1  S   -0.118284  -0.010572   0.087290
 BETA SKELETON FOCK MATRIX

                      1          2          3

    1  H  1  S    0.842940
    2  H  1  S    0.545085   0.631912
    3  H  1  S    0.279542   0.442483   0.436638
 ALPHA SYMMETRIZED FOCK MATRIX

                      1          2          3

    1  H  1  S    0.243390
    2  H  1  S   -0.024948   0.019840
    3  H  1  S   -0.118284  -0.010572   0.087290
 BETA SYMMETRIZED FOCK MATRIX

                      1          2          3

    1  H  1  S    0.842940
    2  H  1  S    0.545085   0.631912
    3  H  1  S    0.279542   0.442483   0.436638
 ALPHA TOTAL FOCK MATRIX

                      1          2          3

    1  H  1  S    0.436642
    2  H  1  S   -0.536555  -0.402303
    3  H  1  S   -0.526932  -0.408503  -0.270094
 BETA TOTAL FOCK MATRIX

                      1          2          3

    1  H  1  S    1.036192
    2  H  1  S    0.033479   0.209769
    3  H  1  S   -0.129106   0.044552   0.079254
 NEW ALPHA ORBITALS

                      1          2          3

                   -0.4998     0.3489     2.4700

    1  H  1  S    0.238036  -0.095512  -1.537252
    2  H  1  S    0.503713  -1.318409   1.882391
    3  H  1  S    0.383565   1.557801  -0.805962
 NEW ALPHA DENSITY MATRIX

                      1          2          3

    1  H  1  S    0.056661
    2  H  1  S    0.119902   0.253726
    3  H  1  S    0.091302   0.193207   0.147122
 NEW BETA DENSITY MATRIX

                      1          2          3

    1  H  1  S    0.000000
    2  H  1  S    0.000000   0.000000
    3  H  1  S    0.000000   0.000000   0.000000
 *** END OF DEBUG OUTPUT FOR ITERATION                     8
   8  3       -0.4998098153     0.0000000000   0.000002746   0.000000000

          -----------------
          DENSITY CONVERGED
          -----------------
     TIME TO FORM FOCK OPERATORS=       0.0 SECONDS (       0.0 SEC/ITER)
     TIME TO SOLVE SCF EQUATIONS=       0.0 SECONDS (       0.0 SEC/ITER)

 FINAL UHF ENERGY IS       -0.4998098153 AFTER   8 ITERATIONS

          --------------------
          SPIN SZ   =    0.500
          S-SQUARED =    0.750
          --------------------

 LZ VALUE ANALYSIS FOR THE MOS
 ----------------------------------------
 MO     1 (    1) HAS LZ(WEIGHT)= 0.00(100.0%) 
 MO     2 (    2) HAS LZ(WEIGHT)= 0.00(100.0%) 
 MO     3 (    3) HAS LZ(WEIGHT)= 0.00(100.0%) 

  ----- ALPHA SET ----- 

          ------------
          EIGENVECTORS
          ------------

                      1          2          3
                   -0.4998     0.3489     2.4700
                     A          A          A   
    1  H  1  S    0.238036  -0.095512  -1.537252
    2  H  1  S    0.503713  -1.318409   1.882391
    3  H  1  S    0.383565   1.557801  -0.805962

          --------------
          DENSITY MATRIX
          --------------

                      1          2          3

    1  H  1  S    0.056661
    2  H  1  S    0.119902   0.253726
    3  H  1  S    0.091302   0.193207   0.147122


                    UHF/ROHF LAGRANGIAN

             1           2           3

    1    0.0283198
    2    0.0599280   0.1268149
    3    0.0456338   0.0965666   0.0735332
 ...... END OF UHF CALCULATION ......
 STEP CPU TIME =     0.01 TOTAL CPU TIME =        0.0 (    0.0 MIN)
 TOTAL WALL CLOCK TIME=        0.1 SECONDS, CPU UTILIZATION IS  50.00%

     ----------------------------------------------------------------
     PROPERTY VALUES FOR THE UHF   SELF-CONSISTENT FIELD WAVEFUNCTION
     ----------------------------------------------------------------

          -----------------
          ENERGY COMPONENTS
          -----------------

         WAVEFUNCTION NORMALIZATION =       1.0000000000

                ONE ELECTRON ENERGY =      -0.4998098153
                TWO ELECTRON ENERGY =       0.0000000000
           NUCLEAR REPULSION ENERGY =       0.0000000000
                                      ------------------
                       TOTAL ENERGY =      -0.4998098153

 ELECTRON-ELECTRON POTENTIAL ENERGY =       0.0000000000
  NUCLEUS-ELECTRON POTENTIAL ENERGY =      -0.9996018420
   NUCLEUS-NUCLEUS POTENTIAL ENERGY =       0.0000000000
                                      ------------------
             TOTAL POTENTIAL ENERGY =      -0.9996018420
               TOTAL KINETIC ENERGY =       0.4997920267
                 VIRIAL RATIO (V/T) =       2.0000355919

          ---------------------------------------
          MULLIKEN AND LOWDIN POPULATION ANALYSES
          ---------------------------------------

     ATOMIC MULLIKEN POPULATION IN EACH MOLECULAR ORBITAL
        ALPHA ORBITALS

                      1

                  1.000000

    1             1.000000

     ATOMIC MULLIKEN POPULATION IN EACH MOLECULAR ORBITAL
         BETA ORBITALS





    1

          MULLIKEN SPHERICAL HARMONIC POPULATIONS
       ATOM           S       P       D      F      G      H      I    TOTAL
    1 H             1.00    0.00    0.00   0.00   0.00   0.00   0.00    1.00

          MULLIKEN SPHERICAL HARMONIC POPULATIONS
       ATOM           S       P       D      F      G      H      I    TOTAL
    1 H             0.00    0.00    0.00   0.00   0.00   0.00   0.00    0.00

     ATOMIC SPIN POPULATION (ALPHA MINUS BETA)
       ATOM         MULL.POP.                    LOW.POP.
    1 H             1.000000                     1.000000


          ********* ALL ELECTRONS ********

               ----- POPULATIONS IN EACH AO -----
                             MULLIKEN      LOWDIN
              1  H  1  S      0.17547     0.20551
              2  H  1  S      0.49086     0.44705
              3  H  1  S      0.33367     0.34744

          ----- MULLIKEN ATOMIC OVERLAP POPULATIONS -----
          (OFF-DIAGONAL ELEMENTS NEED TO BE MULTIPLIED BY 2)

             1

    1    1.0000000

          TOTAL MULLIKEN AND LOWDIN ATOMIC POPULATIONS
       ATOM         MULL.POP.    CHARGE          LOW.POP.     CHARGE
    1 H             1.000000    0.000000         1.000000    0.000000

          MULLIKEN SPHERICAL HARMONIC POPULATIONS
       ATOM           S       P       D      F      G      H      I    TOTAL
    1 H             1.00    0.00    0.00   0.00   0.00   0.00   0.00    1.00

          -------------------------------
          BOND ORDER AND VALENCE ANALYSIS     BOND ORDER THRESHOLD=0.050
          -------------------------------

                   BOND                       BOND                       BOND
  ATOM PAIR DIST  ORDER      ATOM PAIR DIST  ORDER      ATOM PAIR DIST  ORDER

                       TOTAL       BONDED        FREE
      ATOM            VALENCE     VALENCE     VALENCE
    1 H                 1.000       0.000       1.000

          -----------------------------------------
          ATOMIC SPIN DENSITY AT THE NUCLEUS (A.U.)
          -----------------------------------------
                            SPIN DENS    ALPHA DENS     BETA DENS
    1  H            1.0     0.2874444       0.28744       0.00000

          ---------------------
          ELECTROSTATIC MOMENTS
          ---------------------

 POINT   1           X           Y           Z (BOHR)    CHARGE
                 0.000000    0.000000    0.000000        0.00 (A.U.)
         DX          DY          DZ         /D/  (DEBYE)
     0.000000    0.000000    0.000000    0.000000
 ...... END OF PROPERTY EVALUATION ......
 STEP CPU TIME =     0.01 TOTAL CPU TIME =        0.0 (    0.0 MIN)
 TOTAL WALL CLOCK TIME=        0.1 SECONDS, CPU UTILIZATION IS  57.14%
                580000  WORDS OF DYNAMIC MEMORY USED
 EXECUTION OF GAMESS TERMINATED NORMALLY Mon Dec  9 13:52:37 2013
 DDI: 263624 bytes (0.3 MB / 0 MWords) used by master data server.

 ----------------------------------------
 CPU timing information for all processes
 ========================================
 0: 0.22 + 0.41 = 0.64
 ----------------------------------------
 ddikick.x: exited gracefully.
unset echo
----- accounting info -----
Files used on the master node compute-0-9.local were:
-rw-r--r-- 1 asirjoos asirjoos     584 Dec  9 13:52 /scratch/asirjoos/33139/H.F05
-rw-rw-r-- 1 asirjoos asirjoos  180016 Dec  9 13:52 /scratch/asirjoos/33139/H.F08
-rw-rw-r-- 1 asirjoos asirjoos 1766880 Dec  9 13:52 /scratch/asirjoos/33139/H.F10
ls: No match.
ls: No match.
ls: No match.
Mon Dec  9 13:52:40 CST 2013
0.223u 0.136s 0:04.01 8.7%	0+0k 192+208io 1pf+0w
